LAMMPS (18 Jun 2019)
### ---preamble--- ###
log /home/carolina/CairoLattice_ACI_PROJECT/Scripts/Output_Script-12.0/ACI_ShaktiLattice_25mT-2500s_FreeBound_l10_exp49.log
