LAMMPS (18 Jun 2019)
### ---preamble--- ###
log /home/carolina/CairoLattice_ACI_PROJECT/Scripts/Output_Script-6.0/test_new.log
