LAMMPS (18 Jun 2019)
### ---preamble--- ###
log /home/carolina/CairoLattice_ACI_PROJECT/Scripts/Output_Script-1.0/ACI_CairoLattice_l5_15mT-800s.log
