LAMMPS (18 Jun 2019)
### ---preamble--- ###
log /home/carolina/CairoLattice_ACI_PROJECT/Scripts/Output_Script-13.1/video.log
