LAMMPS (18 Jun 2019)
### ---preamble--- ###
log /home/carolina/CairoLattice_ACI_PROJECT/Scripts/Output_Script-8.1/ACI_CairoLattice_25mT-2500s_PeriodicBound_l10_exp4.log
