LAMMPS (18 Jun 2019)
### ---preamble--- ###
log /home/carolina/CairoLattice_ACI_PROJECT/Scripts/Output_Script-15.0/MimicExperimentalData_CairoLattice_25mT-1000s_EXP8.log
